 DBCSR| CPU Multiplication driver                                           BLAS (U)
 DBCSR| Multrec recursion limit                                              512 (U)
 DBCSR| Multiplication stack size                                          30000 (D)
 DBCSR| Maximum elements for images                                    UNLIMITED (U)
 DBCSR| Multiplicative factor virtual images                                   1 (U)
 DBCSR| Use multiplication densification                                       F (D)
 DBCSR| Multiplication size stacks                                             3 (U)
 DBCSR| Use memory pool for CPU allocation                                     F (U)
 DBCSR| Number of 3D layers                                               SINGLE (U)
 DBCSR| Use MPI memory allocation                                              F (U)
 DBCSR| Use RMA algorithm                                                      F (U)
 DBCSR| Use Communication thread                                               T (U)
 DBCSR| Communication thread load                                             45 (D)
 DBCSR| MPI: My process id                                                     0
 DBCSR| MPI: Number of processes                                               1
 DBCSR| OMP: Current number of threads                                        12
 DBCSR| OMP: Max number of threads                                            12
 DBCSR| ACC: Number of devices/node                                            1
 DBCSR| ACC: Number of stack-buffers per thread                                8 (U)
 DBCSR| ACC: Avoid driver after busy                                           F (U)
 DBCSR| ACC: Process inhomogeneous stacks                                      T (U)
 DBCSR| ACC: Min. flop for processing                                          0 (U)
 DBCSR| ACC: Min. flop for sorting                                          4000 (U)
 DBCSR| ACC: Number of binning bins                                         4096 (U)
 DBCSR| ACC: Size of binning bins                                             16 (U)
 DBCSR| ACC: GPU backend is enabled                                            T (D)
 DBCSR| Split modifier for TAS multiplication algorithm                  1.0E+00 (U)


  **** **** ******  **  PROGRAM STARTED AT               2025-04-21 13:41:01.186
 ***** ** ***  *** **   PROGRAM STARTED ON                       mlouis9-G7-7500
 **    ****   ******    PROGRAM STARTED BY                               mlouis9
 ***** **    ** ** **   PROGRAM PROCESS ID                                 28484
  **** **  *******  **  PROGRAM STARTED IN /home/mlouis9/shared/Educational Stuf
                                           fs/Classes/Spring 2025/Computational 
                                           Chemistry/Project/code/h2o_test

 CP2K| version string:                                       CP2K version 2024.3
 CP2K| source code revision number:                                  git:6712648
 CP2K| cp2kflags: omp libint fftw3 libxc parallel scalapack dbcsr_acc offload_cu
 CP2K|            da no_offload_pw
 CP2K| is freely available from                            https://www.cp2k.org/
 CP2K| Program compiled at                          Mon Apr 21 07:41:21 EDT 2025
 CP2K| Program compiled on                                       mlouis9-G7-7500
 CP2K| Program compiled for                        linux-ubuntu22.04-skylake-gcc
 CP2K| Data directory path    /home/mlouis9/spack/opt/spack/linux-ubuntu22.04-sk
 CP2K| Input file name                                                   h2o.inp

 GLOBAL| Force Environment number                                              1
 GLOBAL| Basis set file name                                        BASIS_MOLOPT
 GLOBAL| Potential file name                                      GTH_POTENTIALS
 GLOBAL| MM Potential file name                                     MM_POTENTIAL
 GLOBAL| Coordinate file name                                      __STD_INPUT__
 GLOBAL| Method name                                                        CP2K
 GLOBAL| Project name                                                        H2O
 GLOBAL| Run type                                                         ENERGY
 GLOBAL| FFT library                                                       FFTW3
 GLOBAL| Diagonalization library                                       ScaLAPACK
 GLOBAL| DGEMM library                                                      BLAS
 GLOBAL| Orthonormality check for eigenvectors                          DISABLED
 GLOBAL| Matrix multiplication library                                 ScaLAPACK
 GLOBAL| All-to-all communication in single precision                          F
 GLOBAL| FFTs using library dependent lengths                                  F
 GLOBAL| Grid backend                                                       AUTO
 GLOBAL| Global print level                                                  LOW
 GLOBAL| MPI I/O enabled                                                       T
 GLOBAL| Total number of message passing processes                             1
 GLOBAL| Number of threads for this process                                   12
 GLOBAL| This output is from process                                           0
 GLOBAL| Stack size for threads created by OpenMP (OMP_STACKSIZE)        default
 GLOBAL| CPU model name                Intel(R) Core(TM) i7-10750H CPU @ 2.60GHz
 GLOBAL| CPUID                                                              1002

 MEMORY| system memory details [Kb]
 MEMORY|                        rank 0           min           max       average
 MEMORY| MemTotal             32621220      32621220      32621220      32621220
 MEMORY| MemFree              21422868      21422868      21422868      21422868
 MEMORY| Buffers                356652        356652        356652        356652
 MEMORY| Cached                5101100       5101100       5101100       5101100
 MEMORY| Slab                   604608        604608        604608        604608
 MEMORY| SReclaimable           219404        219404        219404        219404
 MEMORY| MemLikelyFree        27100024      27100024      27100024      27100024


 GENERATE|  Preliminary Number of Bonds generated:                             0
 GENERATE|  Achieved consistency in connectivity generation.

 *******************************************************************************
 *******************************************************************************
 **                                                                           **
 **     #####                         ##              ##                      **
 **    ##   ##            ##          ##              ##                      **
 **   ##     ##                       ##            ######                    **
 **   ##     ##  ##   ##  ##   #####  ##  ##   ####   ##    #####    #####    **
 **   ##     ##  ##   ##  ##  ##      ## ##   ##      ##   ##   ##  ##   ##   **
 **   ##  ## ##  ##   ##  ##  ##      ####     ###    ##   ######   ######    **
 **    ##  ###   ##   ##  ##  ##      ## ##      ##   ##   ##       ##        **
 **     #######   #####   ##   #####  ##  ##  ####    ##    #####   ##        **
 **           ##                                                    ##        **
 **                                                                           **
 **                                                ... make the atoms dance   **
 **                                                                           **
 **            Copyright (C) by CP2K developers group (2000-2024)             **
 **                      J. Chem. Phys. 152, 194103 (2020)                    **
 **                                                                           **
 *******************************************************************************


 TOTAL NUMBERS AND MAXIMUM NUMBERS

  Total number of            - Atomic kinds:                                   2
                             - Atoms:                                          3
                             - Shell sets:                                     3
                             - Shells:                                        11
                             - Primitive Cartesian functions:                 15
                             - Cartesian basis functions:                     24
                             - Spherical basis functions:                     23

  Maximum angular momentum of- Orbital basis functions:                        2
                             - Local part of the GTH pseudopotential:          2
                             - Non-local part of the GTH pseudopotential:      0


 SCF PARAMETERS         Density guess:                                    ATOMIC
                        --------------------------------------------------------
                        max_scf:                                              50
                        max_scf_history:                                       0
                        max_diis:                                              4
                        --------------------------------------------------------
                        eps_scf:                                        1.00E-05
                        eps_scf_history:                                0.00E+00
                        eps_diis:                                       1.00E-01
                        eps_eigval:                                     1.00E-05
                        --------------------------------------------------------
                        level_shift [a.u.]:                             0.000000
                        --------------------------------------------------------
                        Mixing method:                           DIRECT_P_MIXING
                        --------------------------------------------------------
                        No outer SCF

 Number of electrons:                                                          8
 Number of occupied orbitals:                                                  4
 Number of molecular orbitals:                                                 4

 Number of orbital functions:                                                 23
 Number of independent orbital functions:                                     23

 Extrapolation method: initial_guess


 SCF WAVEFUNCTION OPTIMIZATION

  Step     Update method      Time    Convergence         Total energy    Change
  ------------------------------------------------------------------------------
     1 P_Mix/Diag. 0.40E+00    0.8     0.68561632       -16.9635389154 -1.70E+01
     2 P_Mix/Diag. 0.40E+00    0.4     0.33599387       -17.0668041186 -1.03E-01
     3 P_Mix/Diag. 0.40E+00    0.5     0.20155036       -17.1286291309 -6.18E-02
     4 P_Mix/Diag. 0.40E+00    0.4     0.12419419       -17.1652557309 -3.66E-02
     5 P_Mix/Diag. 0.40E+00    0.4     0.07603573       -17.1871147836 -2.19E-02
     6 DIIS/Diag.  0.30E-02    0.4     0.04698559       -17.2002018011 -1.31E-02
     7 DIIS/Diag.  0.11E-03    0.4     0.00016976       -17.2198089238 -1.96E-02
     8 DIIS/Diag.  0.68E-04    0.4     0.00009194       -17.2198089351 -1.13E-08
     9 DIIS/Diag.  0.81E-04    0.4     0.00004647       -17.2198089344  6.46E-10
    10 DIIS/Diag.  0.17E-05    0.4     0.00000174       -17.2198089370 -2.54E-09

  *** SCF run converged in    10 steps ***


  Electronic density on regular grids:         -7.9999998733        0.0000001267
  Core density on regular grids:                7.9999999998       -0.0000000002
  Total charge density on r-space grids:        0.0000001264
  Total charge density g-space grids:           0.0000001264

  Overlap energy of the core charge distribution:               0.00000006739595
  Self energy of the core charge distribution:                -44.34715499673765
  Core Hamiltonian energy:                                     12.91784819901134
  Hartree energy:                                              18.44159736799542
  Exchange-correlation energy:                                 -4.23209957462300

  Total energy:                                               -17.21980893695794

 ENERGY| Total FORCE_EVAL ( QS ) energy [a.u.]:              -17.219808936957943

 -------------------------------------------------------------------------------
 -                                                                             -
 -                                DBCSR STATISTICS                             -
 -                                                                             -
 -------------------------------------------------------------------------------
 COUNTER                                    TOTAL       BLAS       SMM       ACC
 flops    13 x     5 x     4                 5200       0.0%      0.0%    100.0%     
 flops     5 x    13 x     4                 5200       0.0%      0.0%    100.0%     
 flops     5 x     5 x     4                 6000       0.0%      0.0%    100.0%     
 flops    13 x    13 x     4                13520       0.0%      0.0%    100.0%     
 flops inhomo. stacks                           0       0.0%      0.0%      0.0%
 flops total                        29.920000E+03       0.0%      0.0%    100.0%
 flops max/rank                     29.920000E+03       0.0%      0.0%    100.0%
 matmuls inhomo. stacks                         0       0.0%      0.0%      0.0%
 matmuls total                                 60       0.0%      0.0%    100.0%
 number of processed stacks                    50       0.0%      0.0%    100.0%
 average stack size                                     0.0       0.0       1.2
 marketing flops                    42.320000E+03
 -------------------------------------------------------------------------------
 # multiplications                             10
 max memory usage/rank               1.961779E+09
 # max total images/rank                        1
 # max 3D layers                                1
 # MPI messages exchanged                       0
 -------------------------------------------------------------------------------
 -                                                                             -
 -                      DBCSR MESSAGE PASSING PERFORMANCE                      -
 -                                                                             -
 -------------------------------------------------------------------------------
 ROUTINE             CALLS      AVE VOLUME [Bytes]
 MP_Bcast                5                     12.
 MP_Allreduce           78                     13.
 MP_Alltoall           330                   2229.
 MP_ISend               40                     60.
 MP_IRecv               40                     60.
 -------------------------------------------------------------------------------

 -------------------------------------------------------------------------------
 -                                                                             -
 -                                DBM STATISTICS                               -
 -                                                                             -
 -------------------------------------------------------------------------------
    M  x    N  x    K                                          COUNT     PERCENT
 -------------------------------------------------------------------------------

 -------------------------------------------------------------------------------
 -                                                                             -
 -                                GRID STATISTICS                              -
 -                                                                             -
 -------------------------------------------------------------------------------
 LP    KERNEL             BACKEND                              COUNT     PERCENT
 2     collocate ortho    GPU                                   1034      27.49%
 2     integrate ortho    GPU                                    940      24.99%
 3     collocate ortho    GPU                                    660      17.54%
 3     integrate ortho    GPU                                    600      15.95%
 4     collocate ortho    GPU                                    275       7.31%
 4     integrate ortho    GPU                                    250       6.65%
 0     collocate general  CPU                                      3       0.08%
 -------------------------------------------------------------------------------

 MEMORY| Estimated peak process memory [MiB]                                1872

 -------------------------------------------------------------------------------
 -                                                                             -
 -                         MESSAGE PASSING PERFORMANCE                         -
 -                                                                             -
 -------------------------------------------------------------------------------

 ROUTINE             CALLS      AVE VOLUME [Bytes]
 MP_Group                4
 MP_Bcast               20                     94.
 MP_Allreduce          514                      8.
 MP_Sync                14
 MP_comm_split          10
 -------------------------------------------------------------------------------


 -------------------------------------------------------------------------------
 -                                                                             -
 -                           R E F E R E N C E S                               -
 -                                                                             -
 -------------------------------------------------------------------------------
 
 CP2K version 2024.3, the CP2K developers group (2024).
 CP2K is freely available from https://www.cp2k.org/ .
 
 T. D. Kuehne, M. Iannuzzi, M. Del Ben, V. V. Rybkin, P. Seewald, F. Stein, T. 
 Laino, R. Z. Khaliullin, O. Schuett, F. Schiffmann, D. Golze, J. Wilhelm, S. 
 Chulkov, M. H. Bani-Hashemian, V. Weber, U. Borstnik, M. Taillefumier, A. S. 
 Jakobovits, A. Lazzaro, H. Pabst, T. Mueller, R. Schade, M. Guidon, S. 
 Andermatt, N. Holmberg, G. K. Schenter, A. Hehn, A. Bussy, F. Belleflamme, G. 
 Tabacchi, A. Gloess, M. Lass, I. Bethune, C. J. Mundy, C. Plessl, M. Watkins, 
 J. VandeVondele, M. Krack, J. Hutter.
 J. Chem. Phys. 152, 194103 (2020).
 CP2K: An electronic structure and molecular dynamics software package - 
 Quickstep: Efficient and accurate electronic structure calculations.
 https://doi.org/10.1063/5.0007045

 O. Schuett, P. Messmer, J. Hutter, J. VandeVondele.
 Electronic Structure Calculations on Graphics Processing Units, 173-190 (2016).
 GPU-Accelerated Sparse Matrix-Matrix Multiplication for Linear Scaling Density 
 Functional Theory.
 https://doi.org/10.1002/9781118670712.ch8

 J. Hutter, M. Iannuzzi, F. Schiffmann, J. VandeVondele.
 WIREs Comput Mol Sci. 4, 15-25 (2014).
 CP2K: atomistic simulations of condensed matter systems.
 https://doi.org/10.1002/wcms.1159

 U. Borstnik, J. VandeVondele, V. Weber, J. Hutter.
 Parallel Comput. 40, 47-58 (2014).
 Sparse matrix multiplication: The distributed block-compressed sparse row 
 library.
 https://doi.org/10.1016/j.parco.2014.03.012

 J. VandeVondele, J. Hutter.
 J. Chem. Phys. 127, 114105 (2007).
 Gaussian basis sets for accurate calculations on molecular systems in gas and 
 condensed phases.
 https://doi.org/10.1063/1.2770708

 J. VandeVondele, M. Krack, F. Mohamed, M. Parrinello, T. Chassaing, J. Hutter.
 Comput. Phys. Commun. 167, 103-128 (2005).
 QUICKSTEP: Fast and accurate density functional calculations using a mixed 
 Gaussian and plane waves approach.
 https://doi.org/10.1016/j.cpc.2004.12.014

 M. Krack.
 Theor. Chem. Acc. 114, 145-152 (2005).
 Pseudopotentials for H to Kr optimized for gradient-corrected 
 exchange-correlation functionals.
 https://doi.org/10.1007/s00214-005-0655-y

 M. Frigo, S. G. Johnson.
 Proc. IEEE 93, 216-231 (2005).
 The design and implementation of FFTW3.
 https://doi.org/10.1109/JPROC.2004.840301

 C. Hartwigsen, S. Goedecker, J. Hutter.
 Phys. Rev. B 58, 3641-3662 (1998).
 Relativistic separable dual-space Gaussian pseudopotentials from H to Rn.
 https://doi.org/10.1103/PhysRevB.58.3641

 G. Lippert, J. Hutter, M. Parrinello.
 Mol. Phys. 92, 477-487 (1997).
 A hybrid Gaussian and plane wave density functional scheme.
 https://doi.org/10.1080/002689797170220

 S. Goedecker, M. Teter, J. Hutter.
 Phys. Rev. B 54, 1703-1710 (1996).
 Separable dual-space Gaussian pseudopotentials.
 https://doi.org/10.1103/PhysRevB.54.1703

 J. P. Perdew, K. Burke, M. Ernzerhof.
 Phys. Rev. Lett. 77, 3865-3868 (1996).
 Generalized gradient approximation made simple.
 https://doi.org/10.1103/PhysRevLett.77.3865


 -------------------------------------------------------------------------------
 -                                                                             -
 -                                T I M I N G                                  -
 -                                                                             -
 -------------------------------------------------------------------------------
 SUBROUTINE                       CALLS  ASD         SELF TIME        TOTAL TIME
                                MAXIMUM       AVERAGE  MAXIMUM  AVERAGE  MAXIMUM
 CP2K                                 1  1.0    0.009    0.009    5.444    5.444
 qs_energies                          1  2.0    0.000    0.000    5.172    5.172
 scf_env_do_scf                       1  3.0    0.000    0.000    4.747    4.747
 scf_env_do_scf_inner_loop           10  4.0    0.002    0.002    4.740    4.740
 qs_ks_update_qs_env                 10  5.0    0.000    0.000    3.650    3.650
 rebuild_ks_matrix                   10  6.0    0.000    0.000    3.650    3.650
 qs_ks_build_kohn_sham_matrix        10  7.0    0.001    0.001    3.650    3.650
 fft_wrap_pw1pw2                    176 10.2    0.002    0.002    2.626    2.626
 qs_vxc_create                       10  8.0    0.000    0.000    2.617    2.617
 xc_vxc_pw_create                    10  9.0    0.082    0.082    2.617    2.617
 fft_wrap_pw1pw2_140                113 11.6    0.114    0.114    2.581    2.581
 xc_pw_derive                        60 11.0    0.000    0.000    1.737    1.737
 fft3d_s                            177 12.1    1.451    1.451    1.456    1.456
 xc_rho_set_and_dset_create          10 10.0    0.077    0.077    1.338    1.338
 xc_pw_divergence                    10 10.0    0.000    0.000    1.158    1.158
 qs_rho_update_rho_low               11  5.0    0.000    0.000    0.987    0.987
 calculate_rho_elec                  11  6.0    0.056    0.056    0.987    0.987
 density_rs2pw                       11  7.0    0.000    0.000    0.617    0.617
 pw_scatter_s                        91 12.6    0.477    0.477    0.477    0.477
 qs_scf_new_mos                      10  5.0    0.000    0.000    0.405    0.405
 pw_derive                           90 11.3    0.400    0.400    0.400    0.400
 sum_up_and_integrate                10  8.0    0.000    0.000    0.399    0.399
 calculate_dm_sparse                 10  6.0    0.000    0.000    0.394    0.394
 cp_dbcsr_plus_fm_fm_t_native        10  7.0    0.000    0.000    0.394    0.394
 dbcsr_multiply_generic              10  8.0    0.000    0.000    0.393    0.393
 multiply_cannon                     10  9.0    0.016    0.016    0.389    0.389
 integrate_v_rspace                  10  9.0    0.003    0.003    0.383    0.383
 multiply_cannon_loop                10 10.0    0.001    0.001    0.370    0.370
 pw_gather_s                         85 11.7    0.366    0.366    0.366    0.366
 pw_poisson_solve                    10  8.0    0.000    0.000    0.365    0.365
 multiply_cannon_multrec             10 11.0    0.318    0.318    0.318    0.318
 xc_functional_eval                  10 11.0    0.000    0.000    0.317    0.317
 pbe_lda_eval                        10 12.0    0.317    0.317    0.317    0.317
 grid_collocate_task_list            11  7.0    0.314    0.314    0.314    0.314
 init_scf_run                         1  3.0    0.000    0.000    0.310    0.310
 scf_env_initial_rho_setup            1  4.0    0.000    0.000    0.310    0.310
 pw_copy                            150 10.5    0.295    0.295    0.295    0.295
 potential_pw2rs                     10 10.0    0.002    0.002    0.286    0.286
 qs_init_subsys                       1  2.0    0.001    0.001    0.226    0.226
 qs_env_setup                         1  3.0    0.000    0.000    0.224    0.224
 qs_env_rebuild_pw_env                2  3.5    0.000    0.000    0.224    0.224
 pw_env_rebuild                       1  5.0    0.000    0.000    0.224    0.224
 pw_grid_setup                        4  6.0    0.000    0.000    0.219    0.219
 pw_grid_setup_internal               4  7.0    0.006    0.006    0.219    0.219
 pw_poisson_set                      11  8.7    0.000    0.000    0.212    0.212
 pw_grid_sort                         4  8.0    0.137    0.137    0.186    0.186
 pw_axpy                            104  9.2    0.161    0.161    0.161    0.161
 qs_energies_init_hamiltonians        1  3.0    0.000    0.000    0.114    0.114
 -------------------------------------------------------------------------------

 The number of warnings for this run is : 0
 
 -------------------------------------------------------------------------------
  **** **** ******  **  PROGRAM ENDED AT                 2025-04-21 13:41:07.145
 ***** ** ***  *** **   PROGRAM RAN ON                           mlouis9-G7-7500
 **    ****   ******    PROGRAM RAN BY                                   mlouis9
 ***** **    ** ** **   PROGRAM PROCESS ID                                 28484
  **** **  *******  **  PROGRAM STOPPED IN /home/mlouis9/shared/Educational Stuf
                                           fs/Classes/Spring 2025/Computational 
                                           Chemistry/Project/code/h2o_test
