#     Step Nr.          Time[fs]        Kin.[a.u.]          Temp[K]            Pot.[a.u.]        Cons Qty[a.u.]        UsedTime[s]
         0            0.000000         0.380017841      1250.000000000     -4138.360724853     -4137.980707012         0.000000000
