      64
 i =        0, time =        0.000, E =     -4138.3589896688
  U         1.8969330000        7.7549370000        2.6593320000
 Cl         1.0049450000        6.6375980000        4.7101640000
 Cl         0.5348920000        7.7254440000        0.5270860000
 Cl         4.1509620000        8.9017690000        2.7407470000
  U         6.3164810000        8.8122980000        4.9237560000
 Cl         6.1135930000       10.7467530000        3.3531770000
 Cl         5.8392360000        9.1460110000        7.3861480000
 Cl         6.9966150000        6.5441290000        4.0319440000
  U         3.5736670000        5.3688490000        1.2489410000
 Cl         1.4289450000        5.5905610000        2.5142510000
 Cl         4.0791900000        3.2197850000        0.0126270000
 Cl         5.2128660000        7.2962010000        1.2199440000
  U         2.8962010000        8.4957790000        4.4890260000
 Cl         0.5106070000        8.9405300000        3.8880820000
 Cl         4.2449320000        6.8514100000        3.1180850000
 Cl         3.9330660000        9.6953960000        6.4609110000
  U        10.1675000000        8.8489160000        2.5489430000
 Cl        10.5626330000        8.0267000000        0.2213200000
 Cl        10.1006600000       11.3376160000        3.0010520000
 Cl         9.8392080000        7.1824310000        4.4244580000
  U         4.0655440000        4.0785300000        6.2397840000
 Cl         4.5787810000        2.0379590000        7.5898420000
 Cl         4.1035600000        3.9478710000        3.7131300000
 Cl         3.5142910000        6.2497600000        7.4163810000
  U         8.8865930000       10.1669290000        7.6154150000
 Cl         9.6257810000        7.7830460000        7.7592920000
 Cl         6.6737940000       10.8530850000        8.6328690000
 Cl        10.3602040000       11.8646570000        6.4540830000
  U        10.0656550000        3.7767140000        7.2673860000
 Cl         8.1078420000        2.4352780000        8.0532110000
 Cl        12.1352270000        3.9336420000        8.7147100000
 Cl         9.9538970000        4.9612210000        5.0342380000
  U         5.3770840000        4.1303530000        8.0663480000
 Cl         3.0673360000        3.5571080000        8.8321490000
 Cl         6.5779430000        2.5918490000        6.4559310000
 Cl         6.4859750000        6.2421020000        8.9109650000
  U         9.6657060000        7.3834940000       10.2010320000
 Cl        10.3805700000        6.4316060000        0.0174230000
 Cl         9.7911950000        9.8818850000        9.8205160000
 Cl         8.8253520000        5.8369900000        8.3831680000
  U         6.0121130000        4.3962950000        5.1790210000
 Cl         5.8953430000        2.6766040000        3.3682130000
 Cl         4.2570910000        6.2156500000        5.2901360000
 Cl         7.8839060000        4.2966330000        6.8787160000
  U         8.3351900000        3.0515500000        2.8088940000
 Cl         8.5564490000        1.6741480000        4.8834560000
 Cl         6.4638320000        4.7448330000        2.6263900000
 Cl         9.9852900000        2.7356670000        0.9168340000
  U         0.9095570000        4.4116630000        7.7655590000
 Cl         1.0195710000        4.3463840000       10.2622830000
 Cl         0.0221040000        6.4787450000        6.6070690000
 Cl         1.6869940000        2.4098590000        6.4273240000
  U         2.0315090000       10.6341970000        8.1458160000
 Cl         2.0401390000       11.2016960000       10.5805370000
 Cl         1.1708880000        8.3775140000        7.3913530000
 Cl         2.8835010000       12.3233810000        6.4655570000
  U         6.9710190000       10.5910740000        6.3397340000
 Cl         7.7377670000        8.2164960000        6.4929500000
 Cl         4.8815280000       11.1476160000        5.0256610000
 Cl         8.2937620000        0.0271210000        7.5005920000
  U         2.8883190000       10.7967210000        3.2387080000
 Cl         2.5740990000        9.2893850000        1.2691390000
 Cl         4.8154870000        0.0542210000        3.2631710000
 Cl         1.2753720000       10.6645680000        5.1838140000
      64
 i =       10, time =       20.000, E =     -4140.2515025392
  U         1.8953996496        7.7377413983        2.6799087260
 Cl         1.0592477515        6.5041134668        4.6635174007
 Cl         0.5936930956        7.7550851156        0.3865660275
 Cl         4.2589996855        9.0784534717        2.7353338436
  U         6.3291117584        8.7895011297        4.9597522483
 Cl         6.2393537136       10.7449699221        3.2702439292
 Cl         5.8423392352        8.9959614444        7.4686331422
 Cl         7.0224192925        6.5739899075        4.0616158278
  U         3.5618829315        5.3645770157        1.2219580998
 Cl         1.3219510917        5.5505173913        2.4151591140
 Cl         3.9500231402        3.1470065503       -0.0583705282
 Cl         5.2890504004        7.3040363592        1.1878281867
  U         2.8854373259        8.5131229938        4.5119599329
 Cl         0.3666918964        9.0155060932        3.9508480820
 Cl         4.2306915942        6.8706051003        3.1353681726
 Cl         3.7911701876        9.6756660848        6.4918778047
  U        10.1704627654        8.8498982656        2.5549663119
 Cl        10.4265358292        8.1958634717        0.2028643942
 Cl        10.0939688453       11.3712560354        2.9585338408
 Cl         9.9224099481        7.2278791451        4.3995164344
  U         4.0568442904        4.0747188896        6.2427410482
 Cl         4.5539923958        1.9439972209        7.6011958089
 Cl         4.0489433957        3.9517834590        3.6288675726
 Cl         3.5008554151        6.2382358144        7.5065101995
  U         8.8950149492       10.1911419222        7.6128538907
 Cl         9.7106649226        7.8607242630        7.7945045367
 Cl         6.7255968655       10.8602140183        8.7093434551
 Cl        10.4377723227       11.8913333829        6.4449155030
  U        10.0593187581        3.7823015414        7.2783059820
 Cl         8.1085443238        2.3762743213        8.0454784001
 Cl        11.7455459973        3.7043983262        8.8766590148
 Cl         9.9434514858        4.9020786687        5.0731497978
  U         5.3741996226        4.1176734372        8.0857037912
 Cl         3.0328816137        3.4569188245        8.8700949816
 Cl         6.6117558061        2.4180682247        6.4329195079
 Cl         6.4648636101        6.2785563373        9.0101759181
  U         9.6477082300        7.3547573116       10.2064180302
 Cl        10.3509709634        6.2070021689       -0.0610170410
 Cl         9.9036664450        9.8373546847        9.8540740167
 Cl         8.9158083618        5.7784437045        8.4624573989
  U         6.0373090257        4.4056217084        5.1753059806
 Cl         5.9301600672        2.5610413826        3.3750700980
 Cl         4.2791580328        6.1701782704        5.3325962525
 Cl         7.7811243877        4.4575563223        6.8583730157
  U         8.3362106451        3.0425472124        2.7770928190
 Cl         8.5962770105        1.7179137620        4.8606944252
 Cl         6.4777974426        4.7824929830        2.5094928322
 Cl        10.0605574929        2.7018575923        0.9120199554
  U         0.9652598446        4.4235562310        7.7638833303
 Cl         1.0569300293        4.2941220490       10.4512191549
 Cl        -0.0531420477        6.3747546754        6.5769312072
 Cl         1.6389635195        2.4324092338        6.4739549605
  U         2.0349084614       10.6296928155        8.1570637540
 Cl         2.0466003717       11.2706189113       10.5249765313
 Cl         1.1513796282        8.4575066709        7.4822657381
 Cl         2.9022164303       12.2475501319        6.5072187909
  U         7.0092657903       10.6005371163        6.3084399599
 Cl         7.8278442582        8.0482058226        6.5541218884
 Cl         4.8513991962       11.2822619160        5.1075271809
 Cl         8.3768936215        0.0757184012        7.4840403043
  U         2.8775492816       10.8134792472        3.2507544858
 Cl         2.4834747294        9.4116822279        1.1903180191
 Cl         4.7305085521        0.1524365513        3.2215789412
 Cl         1.2270263684       10.7156013571        5.1964682576
      64
 i =       20, time =       40.000, E =     -4140.8345823256
  U         1.8758533878        7.7304020725        2.6417182065
 Cl         1.0772832868        6.5248805290        4.6198483223
 Cl         0.6391491888        7.7475447546        0.3601644904
 Cl         4.2562429074        9.1466297030        2.7023504829
  U         6.3323009082        8.8212053632        4.9756749277
 Cl         6.2267608006       10.7273593749        3.0685715660
 Cl         5.8469593614        9.0162249645        7.5148348304
 Cl         6.9931412294        6.6136461319        3.9943329745
  U         3.5575919329        5.3641452874        1.2408525885
 Cl         1.2421203488        5.4704041526        2.3576972683
 Cl         3.9474244392        3.1480370459       -0.0732406686
 Cl         5.3183685912        7.2128898116        1.1576202658
  U         2.8835761940        8.4828671120        4.5433357490
 Cl         0.2575259576        8.9736173781        3.8910570755
 Cl         4.2259998463        6.8296239649        3.1265420126
 Cl         3.7610369949        9.6041762411        6.5637691853
  U        10.1653353584        8.8743423826        2.5545012366
 Cl        10.4208952715        8.3158798972        0.0924781932
 Cl        10.1392883798       11.3582189852        3.0224893767
 Cl         9.9203902424        7.3080523825        4.3260862036
  U         4.0535588145        4.0605339487        6.2201386116
 Cl         4.4169879406        1.8911915206        7.5488438448
 Cl         4.0641322103        3.9638994862        3.5878705315
 Cl         3.3944037085        6.1749719098        7.6662663382
  U         8.8937493767       10.2314198199        7.5991051944
 Cl         9.7580780287        7.9231850877        7.7738283067
 Cl         6.7079526772       10.9195140514        8.8285461545
 Cl        10.4862894041       11.7676542399        6.4234003256
  U        10.0668888620        3.7598600303        7.2787060552
 Cl         8.2163181656        2.4270646479        8.0675904197
 Cl        11.7156302006        3.6034955782        8.9071246683
 Cl        10.0334412731        4.8102812231        5.0345165293
  U         5.3507928758        4.0843904996        8.1316474277
 Cl         3.0187209153        3.4273710953        8.9351278756
 Cl         6.5722929538        2.3766964459        6.4529931900
 Cl         6.4811991487        6.3779173182        9.0613786121
  U         9.6518175476        7.3313424229       10.2037156220
 Cl        10.3352801031        6.0944068184       -0.0862258407
 Cl         9.9621091121        9.8974505045        9.8742927223
 Cl         8.9803699083        5.7248875654        8.4928114729
  U         6.0660794099        4.3964498881        5.1999300974
 Cl         5.9365479000        2.4741585208        3.2852966060
 Cl         4.1981200332        6.2264667064        5.2392460868
 Cl         7.8743903857        4.5424679352        6.7540708761
  U         8.3414003669        3.0085252549        2.7890940041
 Cl         8.6195181365        1.6750585172        4.8664379766
 Cl         6.4157029342        4.7002191028        2.4871075797
 Cl        10.0431810711        2.7721700036        0.9471349742
  U         0.9754856649        4.4298735030        7.7496517400
 Cl         1.0692724238        4.3907983290       10.4245377055
 Cl        -0.1084792708        6.2492243521        6.6089696192
 Cl         1.5796439887        2.4206039830        6.4810292141
  U         2.0160785774       10.6269332466        8.1552266191
 Cl         2.0831017582       11.3320795638       10.5700350170
 Cl         1.1174246192        8.4260601434        7.4393725393
 Cl         2.9234139410       12.1999744513        6.5204462511
  U         6.9873112243       10.6060834963        6.2848843668
 Cl         7.7896289851        7.9479322445        6.4999243450
 Cl         4.8354950809       11.2934606562        5.1780621201
 Cl         8.2753121017        0.1438461513        7.4376008606
  U         2.8348982992       10.8216649110        3.2500708589
 Cl         2.4912934699        9.4520278656        1.0747106629
 Cl         4.6263029855        0.2684093607        3.1104239864
 Cl         1.2048897551       10.7815811699        5.1306874593
      64
 i =       30, time =       60.000, E =     -4141.1773751344
  U         1.9133714639        7.7096269667        2.6619258143
 Cl         1.0941943631        6.4729199054        4.6546233840
 Cl         0.5929258080        7.7558509189        0.4075168165
 Cl         4.3756947829        9.1870117456        2.7375532279
  U         6.3364929680        8.8397795644        4.9397563170
 Cl         6.2917295559       10.7087949944        3.0173721335
 Cl         5.8240903660        9.0307309234        7.5099050401
 Cl         6.9884521350        6.6197710451        4.0493558526
  U         3.5874570253        5.3474855322        1.2465890623
 Cl         1.2170775429        5.3555592583        2.2841316425
 Cl         4.0176812466        3.1684182646       -0.1486993912
 Cl         5.2738523874        7.2079420974        1.0647195182
  U         2.8605752296        8.4739487256        4.5483467790
 Cl         0.2084494375        9.0603822483        3.9289209602
 Cl         4.2065475005        6.8781812313        3.1854577343
 Cl         3.7373907734        9.6091605230        6.6162914073
  U        10.1769389015        8.8669196255        2.5559711920
 Cl        10.3849163465        8.3306583734        0.0413587770
 Cl        10.1742951472       11.2754619710        2.9385800236
 Cl         9.9069097075        7.2624074824        4.2904086193
  U         4.0686277059        4.0275263371        6.1911078121
 Cl         4.4125013957        1.8604952920        7.6310521758
 Cl         4.0332685480        3.9724804675        3.5659725385
 Cl         3.3639979245        6.1449298517        7.7233480192
  U         8.9011130319       10.2247713539        7.5949360653
 Cl         9.7745943791        7.8501786603        7.7165630139
 Cl         6.7362725384       10.9482836503        8.9170574991
 Cl        10.4706152800       11.6300587887        6.3395990977
  U        10.0719054635        3.7885160891        7.2575281899
 Cl         8.2050443643        2.4617069607        8.1010662891
 Cl        11.6108858267        3.5149763456        8.9112270078
 Cl        10.0343955158        4.8107680924        5.0274589533
  U         5.3726838279        4.1133140232        8.1333533157
 Cl         2.9689176143        3.4796760450        8.9642094589
 Cl         6.5449758966        2.4114097153        6.4300309018
 Cl         6.5437823588        6.4134221100        9.0816527386
  U         9.6317288432        7.3370894678       10.2104129637
 Cl        10.3047558082        5.9626608856       -0.1024741379
 Cl         9.9689965350        9.8947496340        9.9853618774
 Cl         9.0476286359        5.6801481229        8.5608824686
  U         6.0499807214        4.4028341554        5.1995427360
 Cl         5.9551476958        2.3805289434        3.3316311703
 Cl         4.1966466044        6.2229112002        5.3500600049
 Cl         7.9141081475        4.6362682111        6.7458633694
  U         8.3084451952        2.9924650035        2.7788458646
 Cl         8.5447115818        1.6613012500        4.8380196628
 Cl         6.4571714565        4.6921639925        2.3633805026
 Cl        10.1387028641        2.8106201089        1.0342187015
  U         1.0119562330        4.4535385988        7.7420798292
 Cl         1.0562528560        4.4183352008       10.4088141106
 Cl        -0.1685702274        6.2675886316        6.6273815394
 Cl         1.5934658169        2.4248666792        6.4682623885
  U         1.9945761641       10.6371598765        8.1784897100
 Cl         2.0798167574       11.3322205941       10.6348398668
 Cl         1.1001673613        8.4183628506        7.4084934371
 Cl         2.9535129939       12.2984638833        6.5715367278
  U         6.9670198939       10.5973518484        6.3153123762
 Cl         7.7992152737        7.9068595043        6.4965441804
 Cl         4.8205846268       11.2558028720        5.2527157022
 Cl         8.2096799834        0.1421491127        7.4372973905
  U         2.8424459984       10.8636275006        3.2424844400
 Cl         2.4817584160        9.6412363375        1.0785716582
 Cl         4.5677929858        0.3122126761        3.0277163795
 Cl         1.2104042621       10.8493383423        5.2048674354
      64
 i =       40, time =       80.000, E =     -4141.3724037939
  U         1.9178817630        7.7067962306        2.6282160514
 Cl         1.0924079529        6.4562160609        4.7380129008
 Cl         0.7155550151        7.7541427073        0.3639181898
 Cl         4.4386578917        9.2384512321        2.7150986041
  U         6.3118292437        8.8244985214        4.9375091996
 Cl         6.3631269339       10.6782708236        3.0083492174
 Cl         5.8653050709        8.9510699229        7.4653025591
 Cl         6.9040885774        6.6188285150        4.0520366793
  U         3.5959066770        5.3410538816        1.2614214890
 Cl         1.1838320636        5.3511881426        2.2667207177
 Cl         4.0429325351        3.1746029217       -0.1528850646
 Cl         5.2275473470        7.1914448695        0.9694004984
  U         2.8043248238        8.4379251541        4.5506308383
 Cl         0.1939459878        9.0416054447        3.9259139961
 Cl         4.1681902858        6.7914145953        3.1895423748
 Cl         3.7156086210        9.6213193006        6.6293658567
  U        10.2094475286        8.8677994392        2.5497003564
 Cl        10.3240477384        8.3986849582        0.0811255523
 Cl        10.1815332263       11.3333175605        2.8280243472
 Cl         9.8535525808        7.2368409005        4.2822406722
  U         4.0825491810        4.0380679754        6.2032731478
 Cl         4.3836774177        1.8412671256        7.6433682610
 Cl         3.9862592041        3.9423568028        3.6142980910
 Cl         3.3941598015        6.1011833360        7.7583384020
  U         8.8980053970       10.2220667696        7.6060375553
 Cl         9.9016331980        7.8079352369        7.6478813445
 Cl         6.7989790749       11.0255060136        8.9814395688
 Cl        10.4150063805       11.6075284467        6.3476683467
  U        10.0578405600        3.7774224255        7.2553777728
 Cl         8.2357369162        2.5067172204        8.1777722225
 Cl        11.5930848691        3.4717323826        9.0301379312
 Cl        10.0473029590        4.8289291873        4.9767514602
  U         5.3401569059        4.1111350233        8.1237097056
 Cl         2.9919022995        3.4147786122        8.9163097714
 Cl         6.5357878016        2.3401123658        6.4376444850
 Cl         6.4577343522        6.4603535191        9.0801604555
  U         9.6469829098        7.3242279598       10.2342124953
 Cl        10.2927537354        5.9315929448       -0.1579327484
 Cl         9.9491200500        9.9528086334       10.1303879589
 Cl         8.9994618746        5.6986395626        8.6645363013
  U         6.0317537556        4.4071390309        5.1361571043
 Cl         5.9421772514        2.3492171284        3.3063777821
 Cl         4.2378611359        6.2946882522        5.3721989143
 Cl         7.9094154603        4.5473352665        6.7077318378
  U         8.3344450539        2.9976114683        2.7821576650
 Cl         8.5650493219        1.5529570276        4.8958895106
 Cl         6.3929239218        4.6651986617        2.2820345084
 Cl        10.1088847530        2.8531852806        1.0238068545
  U         1.0481672597        4.4400547589        7.7493272234
 Cl         1.0291443049        4.4051781523       10.4721338104
 Cl        -0.2516319646        6.3069932154        6.6018805110
 Cl         1.6607140688        2.4894875008        6.4383670393
  U         1.9874514629       10.6029184603        8.2251173536
 Cl         2.0308681596       11.4650060672       10.5322579126
 Cl         1.0505743115        8.4963351269        7.4795398780
 Cl         2.9836500755       12.3025994674        6.6021819495
  U         6.9529608799       10.6210894004        6.3094970167
 Cl         7.8272847481        7.8849631412        6.4181943754
 Cl         4.8920676400       11.2600408871        5.2517925917
 Cl         8.2012326141        0.1959863779        7.4201007297
  U         2.8557690971       10.8494984353        3.2043812714
 Cl         2.4761945243        9.6630553667        1.0955540746
 Cl         4.5406345757        0.2525542515        2.9896332125
 Cl         1.2287677542       10.9356708286        5.2255501020
      64
 i =       50, time =      100.000, E =     -4141.5112843377
  U         1.9315760187        7.7071706314        2.6173796904
 Cl         1.0537955119        6.4565692204        4.7276528601
 Cl         0.8536895545        7.7320992726        0.3913990350
 Cl         4.5957261829        9.2336827387        2.6757502736
  U         6.3392585864        8.8142625998        4.9569290486
 Cl         6.4654636984       10.7213383470        3.0885739168
 Cl         5.7585313836        8.8917846142        7.4871580494
 Cl         6.8568445541        6.5752389071        4.0754465544
  U         3.6225042593        5.3397663608        1.2903987252
 Cl         1.1566280379        5.3384304745        2.1654264578
 Cl         4.0200676606        3.2014541603       -0.0495284255
 Cl         5.2847472427        7.1626002112        0.9371886003
  U         2.7851088804        8.4221444727        4.5880238451
 Cl         0.1704028204        9.0371690920        3.7789013725
 Cl         4.2569890523        6.8028631439        3.2250601404
 Cl         3.6704594185        9.6056878156        6.6037025730
  U        10.1694927617        8.8549280989        2.5730861104
 Cl        10.2773306734        8.3886709901        0.1150764927
 Cl        10.1810538109       11.3378105716        2.7030333523
 Cl         9.8434997809        7.2266861196        4.2793565999
  U         4.0868473378        4.0262665051        6.2253636678
 Cl         4.4368984327        1.8830470229        7.7086564814
 Cl         3.9901712201        3.9499430474        3.6397074254
 Cl         3.3951520963        6.1143245872        7.7504670610
  U         8.9085444231       10.2027920990        7.6041296651
 Cl         9.9649047945        7.9266014925        7.5768044323
 Cl         6.8333993421       11.0416973487        9.0106875745
 Cl        10.4319465416       11.6347134354        6.2482293395
  U        10.0792755512        3.7658008567        7.2694783414
 Cl         8.3067869503        2.5360942448        8.2175623521
 Cl        11.5471169935        3.4416148075        9.1105231042
 Cl         9.9645420272        4.8462000313        4.9704385133
  U         5.3299044807        4.1152630836        8.1100958650
 Cl         2.9409879415        3.4129362734        8.9299627545
 Cl         6.4797617718        2.3258896317        6.4633023226
 Cl         6.4958567045        6.4773102907        9.1452652158
  U         9.6535708218        7.3089422987       10.2496956982
 Cl        10.3159630649        5.9083426479       -0.1121112614
 Cl         9.8776623248        9.9838384801       10.1733302818
 Cl         8.9481109344        5.6819834406        8.5892738042
  U         6.0393114055        4.4256818125        5.1343099357
 Cl         5.9663289567        2.2841710591        3.2694529542
 Cl         4.2881243030        6.2976786822        5.3779265731
 Cl         7.8280448828        4.5786954878        6.6784721523
  U         8.3358300991        2.9990118704        2.7768512303
 Cl         8.5980792497        1.5576200639        4.8968038876
 Cl         6.4605540582        4.6211318539        2.2458007749
 Cl        10.0427109065        2.8649025626        1.0044026136
  U         1.0186986041        4.4581848254        7.7560493628
 Cl         1.0402342615        4.4896137154       10.4558830113
 Cl        -0.3369507559        6.2087073173        6.5662632855
 Cl         1.6255893714        2.4806987884        6.3651064800
  U         1.9665087482       10.6098641601        8.2241443613
 Cl         1.9714449492       11.4443912012       10.5566109222
 Cl         1.0612710028        8.5816497045        7.3934150637
 Cl         2.9665017354       12.3534266277        6.6976299068
  U         6.9640405138       10.6035967232        6.3154168873
 Cl         7.9375453991        7.8711876440        6.4173206477
 Cl         4.8895670371       11.3384818503        5.3459183789
 Cl         8.2633690852        0.1594980154        7.4267484367
  U         2.8313903113       10.8264471599        3.1776311954
 Cl         2.5077462133        9.6582258068        1.0333034479
 Cl         4.5332591832        0.3091564545        3.0678514468
 Cl         1.1516364658       10.9920102582        5.2273826941
      64
 i =       60, time =      120.000, E =     -4141.6233237279
  U         1.9157443118        7.7137688471        2.6216564958
 Cl         1.1342628076        6.5399095367        4.6918397766
 Cl         0.8244343147        7.7350242242        0.4268634541
 Cl         4.4876368175        9.2554407076        2.6694997893
  U         6.3075233211        8.8071326664        4.9381724789
 Cl         6.5520663984       10.7084610918        3.1516406557
 Cl         5.7851329057        8.8494128712        7.4460088113
 Cl         6.8196796048        6.6361112775        4.0954996901
  U         3.6130655269        5.3199285979        1.2825093583
 Cl         1.1570791191        5.3815778303        2.1633648331
 Cl         3.9744835135        3.1893816280       -0.0509280687
 Cl         5.3890927477        7.0735360942        0.9628485638
  U         2.7911728463        8.4159367456        4.6026577441
 Cl         0.0989911943        8.9816823515        3.6992629819
 Cl         4.2605050917        6.8761930744        3.1535936561
 Cl         3.6071486152        9.5714560066        6.5770504269
  U        10.1287218364        8.8776853885        2.5759463388
 Cl        10.2879690770        8.4120593286        0.0972142035
 Cl        10.1682367406       11.3228795821        2.6805265177
 Cl         9.8676600308        7.3434566465        4.3598017972
  U         4.0582499975        3.9926213774        6.2429607292
 Cl         4.3664379662        1.7806410121        7.7139572555
 Cl         3.9077003887        3.8770567659        3.5495350416
 Cl         3.2969855900        6.1058611115        7.7688212603
  U         8.8834777561       10.2061165717        7.6179840418
 Cl         9.9999133103        7.8950344534        7.6283760361
 Cl         6.7612047736       11.0520599175        9.0137164780
 Cl        10.4845760756       11.5325192301        6.1557570037
  U        10.0626020642        3.7777847118        7.2757211643
 Cl         8.3535236876        2.4875324383        8.2838940016
 Cl        11.5632434647        3.4840589772        9.1280014647
 Cl         9.9987981645        4.7321769216        4.9063947616
  U         5.2760793837        4.1091396379        8.1400261118
 Cl         2.9588244871        3.4613931270        9.0051945056
 Cl         6.4384545310        2.2593910454        6.4222116512
 Cl         6.3856386320        6.5174981905        9.0598285422
  U         9.7038016535        7.3194604471       10.2766275881
 Cl        10.3710142837        5.9053577119       -0.0700200995
 Cl         9.8094593269        9.9485055171       10.2085093836
 Cl         8.9694368890        5.6346540897        8.5887972340
  U         6.0562808967        4.3898210056        5.1204545348
 Cl         5.9979790186        2.2492733266        3.2310402492
 Cl         4.3224852401        6.2370872109        5.3327591235
 Cl         7.8626600678        4.4630845235        6.6193334814
  U         8.3478542733        3.0388052010        2.7720110688
 Cl         8.5732164063        1.5563010171        4.8489184564
 Cl         6.4804429159        4.8120413530        2.3125364181
 Cl         9.9842835610        2.8610423816        0.9917256868
  U         1.0011366908        4.4923856727        7.7595926785
 Cl         1.0579761329        4.5746063900       10.4114775507
 Cl        -0.3861888398        6.2190575791        6.5025967710
 Cl         1.6494124558        2.5285478691        6.3301669648
  U         1.9927105428       10.6221656545        8.1969270205
 Cl         1.8975661461       11.4369200863       10.5781429714
 Cl         1.0384834746        8.6001156543        7.3348418009
 Cl         2.9389646019       12.3755808027        6.6536320721
  U         6.9721584393       10.6052512433        6.3228744732
 Cl         7.9564334425        7.9144261406        6.3994119622
 Cl         4.9024001048       11.3166675334        5.3138600933
 Cl         8.2915116659        0.2439605395        7.4242762897
  U         2.8128510154       10.8194071361        3.1724356796
 Cl         2.4831493008        9.5832167004        0.9713486667
 Cl         4.4247078757        0.3145708391        3.0317406403
 Cl         1.1149558163       10.9798961630        5.1493300076
      64
 i =       70, time =      140.000, E =     -4141.7373999025
  U         1.9016131439        7.6884465722        2.6175039404
 Cl         1.2141329396        6.3961297439        4.6864023723
 Cl         0.8108553629        7.5834042320        0.4088085868
 Cl         4.5142031037        9.1811528297        2.6617336219