#     Step Nr.          Time[fs]        Kin.[a.u.]          Temp[K]            Pot.[a.u.]        Cons Qty[a.u.]        UsedTime[s]
         0            0.000000         0.380017841      1250.000000000     -4138.358989669     -4137.978971828         0.000000000
         1            2.000000         0.394021690      1296.063129840     -4138.570050850     -4138.176029160      1222.008424256
         2            4.000000         0.512711161      1686.470691488     -4138.896218763     -4138.383507602        78.184040084
         3            6.000000         0.554127735      1822.703023757     -4139.192726369     -4138.638598635        67.788902421
         4            8.000000         0.496145510      1631.980977760     -4139.440463016     -4138.944317505        62.502606969
         5           10.000000         0.518423821      1705.261454478     -4139.638580454     -4139.120156633        65.156394145
         6           12.000000         0.448526488      1475.346809246     -4139.829406145     -4139.380879658        55.954674345
         7           14.000000         0.531653369      1748.777659582     -4139.969110129     -4139.437456760        49.590111064
         8           16.000000         0.489424775      1609.874331884     -4140.103182714     -4139.613757940        68.584619421
         9           18.000000         0.444016810      1460.513039153     -4140.183893366     -4139.739876556        64.581220390
        10           20.000000         0.426163129      1401.786583138     -4140.251502539     -4139.825339410        41.807020764
        11           22.000000         0.438737282      1443.146986235     -4140.318127182     -4139.879389900        73.827061217
        12           24.000000         0.437475695      1438.997222961     -4140.416657255     -4139.979181560        65.648271054
        13           26.000000         0.373374005      1228.146300710     -4140.502511782     -4140.129137777        87.301097154
        14           28.000000         0.386669655      1271.879939868     -4140.586964881     -4140.200295226        45.338254461
        15           30.000000         0.383839289      1262.569962843     -4140.636744708     -4140.252905419        44.209873508
        16           32.000000         0.448848173      1476.404935935     -4140.676833056     -4140.227984883       111.900324858
        17           34.000000         0.471418578      1550.646202583     -4140.723570610     -4140.252152032        64.600558556
        18           36.000000         0.445040892      1463.881571692     -4140.759967395     -4140.314926503        58.509614774
        19           38.000000         0.423426717      1392.785651745     -4140.791622882     -4140.368196165        57.001663956
        20           40.000000         0.442508824      1455.552792141     -4140.834582326     -4140.392073502        48.063427826
        21           42.000000         0.443282873      1458.098885552     -4140.892157353     -4140.448874481        57.993967377
        22           44.000000         0.430026097      1414.493118851     -4140.924901315     -4140.494875217       121.953712978
        23           46.000000         0.400685797      1317.983503604     -4140.962786687     -4140.562100891        46.757805847
        24           48.000000         0.410016130      1348.673949613     -4140.990678364     -4140.580662233        42.316292334
        25           50.000000         0.322718072      1061.522766763     -4140.997585253     -4140.674867181        43.708407056
        26           52.000000         0.349428686      1149.382501919     -4141.018815423     -4140.669386737        48.327033744
        27           54.000000         0.398116194      1309.531259413     -4141.052982096     -4140.654865902        46.404986870
        28           56.000000         0.391388779      1287.402644461     -4141.099133239     -4140.707744460        53.150602180
        29           58.000000         0.390928667      1285.889188656     -4141.141777684     -4140.750849017        42.473112852
        30           60.000000         0.386110797      1270.041675509     -4141.177375134     -4140.791264338        46.477825087
        31           62.000000         0.423789515      1393.979010222     -4141.198679214     -4140.774889698        44.770376367
        32           64.000000         0.399825338      1315.153181139     -4141.240341782     -4140.840516444        49.795693833
        33           66.000000         0.361399313      1188.757716869     -4141.270600015     -4140.909200702        53.194860625
        34           68.000000         0.409505359      1346.993858398     -4141.294306592     -4140.884801233        59.919606613
        35           70.000000         0.344383834      1132.788373619     -4141.320886869     -4140.976503035        51.621892960
        36           72.000000         0.368169724      1211.027759099     -4141.331390941     -4140.963221217        65.229379687
        37           74.000000         0.450710693      1482.531359436     -4141.344872791     -4140.894162097        64.139724372
        38           76.000000         0.387602880      1274.949615249     -4141.352227793     -4140.964624912        58.058980767
        39           78.000000         0.363776588      1196.577332078     -4141.364996828     -4141.001220240        60.253274795
        40           80.000000         0.294495373       968.689299233     -4141.372403794     -4141.077908421        69.488776034
        41           82.000000         0.335296455      1102.897083008     -4141.378092438     -4141.042795983        63.986823762
        42           84.000000         0.344626682      1133.587178021     -4141.392834605     -4141.048207923        55.519314818
        43           86.000000         0.302120342       993.770255519     -4141.392284987     -4141.090164645        61.172171628
        44           88.000000         0.356104654      1171.341893995     -4141.412883271     -4141.056778616        65.471385561
        45           90.000000         0.417407041      1372.985013892     -4141.426372815     -4141.008965774       357.788432044
        46           92.000000         0.433746124      1426.729474490     -4141.446493204     -4141.012747080       108.441518854
        47           94.000000         0.441091409      1450.890460789     -4141.458296715     -4141.017205306       127.919473291
        48           96.000000         0.395070489      1299.512965120     -4141.477409636     -4141.082339147        68.848322129
        49           98.000000         0.373217956      1227.633007866     -4141.501330510     -4141.128112554       101.120501823
        50          100.000000         0.342199382      1125.603014528     -4141.511284338     -4141.169084956        93.814809812
        51          102.000000         0.394772851      1298.533937073     -4141.520840722     -4141.126067871        93.273522112
        52          104.000000         0.383904523      1262.784536721     -4141.538880560     -4141.154976037        67.972934741
        53          106.000000         0.380060244      1250.139477605     -4141.546144405     -4141.166084160       105.966019075
        54          108.000000         0.401140510      1319.479201635     -4141.572405621     -4141.171265111        83.047606533
        55          110.000000         0.423202526      1392.048214520     -4141.582572983     -4141.159370457       115.601928414
        56          112.000000         0.385670519      1268.593463543     -4141.590642815     -4141.204972296       417.825975297
        57          114.000000         0.381428557      1254.640295450     -4141.600824057     -4141.219395499       119.578331126
        58          116.000000         0.409085025      1345.611248578     -4141.609411360     -4141.200326335       315.747001474
        59          118.000000         0.342513595      1126.636560225     -4141.620257204     -4141.277743610        92.965941098
        60          120.000000         0.357549168      1176.093360715     -4141.623323728     -4141.265774560       105.888204316
        61          122.000000         0.387550720      1274.778044801     -4141.640785138     -4141.253234418        83.229657982
        62          124.000000         0.370453377      1218.539422489     -4141.657809014     -4141.287355637        75.924875651
        63          126.000000         0.428792680      1410.436017660     -4141.650623249     -4141.221830568        66.928744535
        64          128.000000         0.378229377      1244.117171548     -4141.660452480     -4141.282223103        97.639764365
        65          130.000000         0.379585475      1248.577808663     -4141.680277652     -4141.300692177       333.379519911
        66          132.000000         0.413860243      1361.318464791     -4141.691557081     -4141.277696837        73.290619761
        67          134.000000         0.403837140      1328.349277719     -4141.703405673     -4141.299568534       285.269740306
        68          136.000000         0.369359154      1214.940175727     -4141.713817158     -4141.344458004        49.322778277
        69          138.000000         0.407037145      1338.875116289     -4141.724064575     -4141.317027430        40.212159809
        70          140.000000         0.435976921      1434.067276775     -4141.737399903     -4141.301422982        37.736334227
        71          142.000000         0.333486856      1096.944735272     -4141.749406899     -4141.415920043        38.879042142
        72          144.000000         0.337769445      1111.031536106     -4141.754974166     -4141.417204722        41.613096989
        73          146.000000         0.401638551      1321.117418313     -4141.761323373     -4141.359684821        43.629356145
        74          148.000000         0.424669733      1396.874328666     -4141.766849359     -4141.342179625        48.196389516
        75          150.000000         0.446986931      1470.282714604     -4141.770993026     -4141.324006095       105.681664053
        76          152.000000         0.413251795      1359.317084831     -4141.781082649     -4141.367830854        72.233036636
        77          154.000000         0.424117116      1395.056594728     -4141.793359443     -4141.369242327        50.821446544
        78          156.000000         0.383839635      1262.571100373     -4141.799037487     -4141.415197851        62.860300186
        79          158.000000         0.463927241      1526.004803153     -4141.797169948     -4141.333242707        52.700228466
        80          160.000000         0.370449079      1218.525285694     -4141.807026594     -4141.436577515        67.191730410
        81          162.000000         0.386467737      1271.215765690     -4141.824676024     -4141.438208287        45.753715117
        82          164.000000         0.354847600      1167.207041074     -4141.847596279     -4141.492748679       170.421129446
        83          166.000000         0.352123610      1158.246968449     -4141.873434573     -4141.521310963        90.119532658
        84          168.000000         0.426744641      1403.699362987     -4141.884771760     -4141.458027118       150.431359951
        85          170.000000         0.369800929      1216.393313575     -4141.890895072     -4141.521094143        53.497798616
        86          172.000000         0.388465811      1277.788071220     -4141.898573444     -4141.510107632        64.631225690
        87          174.000000         0.433042106      1424.413736068     -4141.913097446     -4141.480055339        56.136124056
        88          176.000000         0.382179416      1257.110109742     -4141.928782365     -4141.546602949        59.509357383
        89          178.000000         0.396023492      1302.647696894     -4141.948936140     -4141.552912647        55.056619801
        90          180.000000         0.413027690      1358.579930573     -4141.961309506     -4141.548281816        99.545843718
        91          182.000000         0.414246462      1362.588861203     -4141.980806691     -4141.566560229        43.663194929
        92          184.000000         0.370569910      1218.922737479     -4141.992337282     -4141.621767373        50.198093005
        93          186.000000         0.346178185      1138.690565878     -4142.006902033     -4141.660723848        71.224072079
        94          188.000000         0.403359057      1326.776711456     -4142.017366962     -4141.614007905        55.739768814
        95          190.000000         0.401156604      1319.532138318     -4142.024103505     -4141.622946901        55.667875852
        96          192.000000         0.493792952      1624.242661019     -4142.039267857     -4141.545474906        49.363624337
        97          194.000000         0.391126736      1286.540703138     -4142.041553062     -4141.650426326        47.341165245
        98          196.000000         0.374350858      1231.359481608     -4142.056784736     -4141.682433878        38.656975698
        99          198.000000         0.363368713      1195.235701557     -4142.066351027     -4141.702982315        45.692962172
       100          200.000000         0.381966429      1256.409528201     -4142.066505299     -4141.684538869        46.222764050
       101          202.000000         0.411891886      1354.843909201     -4142.080895754     -4141.669003868        38.773732997
       102          204.000000         0.395109426      1299.641039335     -4142.095001702     -4141.699892277        40.424700880
       103          206.000000         0.387914986      1275.976229610     -4142.098234487     -4141.710319501        43.983859286
       104          208.000000         0.290999645       957.190735291     -4142.109215699     -4141.818216054        39.912623660
       105          210.000000         0.319302833      1050.288954710     -4142.119044593     -4141.799741760        42.263041886
       106          212.000000         0.353496290      1162.762151220     -4142.118179052     -4141.764682762        52.345981291
       107          214.000000         0.349434887      1149.402899486     -4142.117201161     -4141.767766274        51.247648107
       108          216.000000         0.368280693      1211.392771322     -4142.118666365     -4141.750385672        60.176552197
       109          218.000000         0.365200872      1201.262258387     -4142.112882749     -4141.747681877        57.818587063
       110          220.000000         0.396391666      1303.858735708     -4142.101200160     -4141.704808495        52.918458154
       111          222.000000         0.379587732      1248.585234036     -4142.106876634     -4141.727288902        47.548491032
       112          224.000000         0.418318228      1375.982200885     -4142.110915907     -4141.692597679        42.375071173
       113          226.000000         0.380405673      1251.275704124     -4142.115777946     -4141.735372272        52.380800970
       114          228.000000         0.412384824      1356.465338417     -4142.121731017     -4141.709346194        51.769187615
       115          230.000000         0.455719493      1499.006901368     -4142.138148135     -4141.682428642        56.325236500
       116          232.000000         0.429346139      1412.256520931     -4142.145298946     -4141.715952807        54.946842217
       117          234.000000         0.391121842      1286.524603278     -4142.150313048     -4141.759191206        50.188073278
       118          236.000000         0.342002014      1124.953806618     -4142.146586279     -4141.804584265        50.061597390
       119          238.000000         0.343142686      1128.705842121     -4142.144062916     -4141.800920230        46.385136634
       120          240.000000         0.379111163      1247.017644999     -4142.130554240     -4141.751443077        44.219621303
       121          242.000000         0.314061254      1033.047726503     -4142.122669313     -4141.808608060        49.277011921
       122          244.000000         0.357015361      1174.337500356     -4142.132561100     -4141.775545739        49.272492393
       123          246.000000         0.350206968      1151.942520781     -4142.142053089     -4141.791846121        48.394975990
       124          248.000000         0.371822540      1223.043036581     -4142.154364650     -4141.782542111        36.829618626
       125          250.000000         0.369980142      1216.982802692     -4142.157586415     -4141.787606273        54.554765963
       126          252.000000         0.374066195      1230.423134107     -4142.168446774     -4141.794380580        57.032200296
       127          254.000000         0.349015142      1148.022223215     -4142.167917215     -4141.818902073        61.744045585
       128          256.000000         0.348711407      1147.023143262     -4142.167266964     -4141.818555557        58.997743353
       129          258.000000         0.327416168      1076.976302903     -4142.172931666     -4141.845515498        53.961849689
       130          260.000000         0.395373575      1300.509912355     -4142.175316605     -4141.779943030        52.175632230
       131          262.000000         0.445741984      1466.187687165     -4142.173925779     -4141.728183796        43.002262464
       132          264.000000         0.394612735      1298.007265230     -4142.183762683     -4141.789149948        61.047763661
       133          266.000000         0.325107023      1069.380790369     -4142.193842581     -4141.868735557        57.867840504
       134          268.000000         0.390815700      1285.517604815     -4142.206246061     -4141.815430361       140.010556453
       135          270.000000         0.371381120      1221.591067786     -4142.203419287     -4141.832038167        83.602421740
       136          272.000000         0.421768881      1387.332499842     -4142.201202888     -4141.779434006        79.948982928
       137          274.000000         0.339214641      1115.785247238     -4142.211634875     -4141.872420234        75.090856609
       138          276.000000         0.341059616      1121.853959409     -4142.224919880     -4141.883860265        62.673476311
       139          278.000000         0.428050828      1407.995827460     -4142.229915745     -4141.801864917        63.425565241
       140          280.000000         0.372464369      1225.154219620     -4142.233984275     -4141.861519906       231.819478923
       141          282.000000         0.371419261      1221.716524990     -4142.229666262     -4141.858247000        52.823370920
       142          284.000000         0.411023757      1351.988354283     -4142.229584397     -4141.818560640        70.709768575
       143          286.000000         0.323184056      1063.055536071     -4142.235391987     -4141.912207931        45.924675809
       144          288.000000         0.338973433      1114.991838037     -4142.239570479     -4141.900597046        52.874744651
       145          290.000000         0.341931706      1124.722542960     -4142.238190491     -4141.896258785        54.084697393
       146          292.000000         0.333932522      1098.410672107     -4142.234774054     -4141.900841532        51.613770179
       147          294.000000         0.317858155      1045.536947946     -4142.235790378     -4141.917932223        51.197337319
       148          296.000000         0.345148036      1135.302078174     -4142.238874018     -4141.893725982        48.282748252
       149          298.000000         0.288462156       948.844122860     -4142.241901179     -4141.953439022        52.873914717
       150          300.000000         0.451851698      1486.284486770     -4142.234347313     -4141.782495615        54.707914263
       151          302.000000         0.417558863      1373.484404589     -4142.239552951     -4141.821994088        48.990320876
       152          304.000000         0.425154309      1398.468253787     -4142.249925661     -4141.824771351        58.664261897
       153          306.000000         0.373437772      1228.356050197     -4142.249709913     -4141.876272141        59.172962543
       154          308.000000         0.315040052      1036.267307132     -4142.241841171     -4141.926801119        53.631502580
       155          310.000000         0.374854312      1233.015503172     -4142.232668090     -4141.857813778        59.137780841
       156          312.000000         0.441540942      1452.369118781     -4142.224637456     -4141.783096515        63.748634239
       157          314.000000         0.410154679      1349.129680253     -4142.224805345     -4141.814650666        56.962315470
       158          316.000000         0.344606384      1133.520412312     -4142.230668428     -4141.886062044        55.664598301
       159          318.000000         0.448469734      1475.160128740     -4142.244479215     -4141.796009481        68.475408668
       160          320.000000         0.449644918      1479.025684901     -4142.252664330     -4141.803019411        48.089912111
       161          322.000000         0.371698526      1222.635116294     -4142.251066501     -4141.879367975        58.918405881
       162          324.000000         0.438417729      1442.095875310     -4142.261987613     -4141.823569884       159.889019580
       163          326.000000         0.369495109      1215.387374650     -4142.272935904     -4141.903440795       100.118261142
       164          328.000000         0.328977521      1082.112091838     -4142.276996720     -4141.948019199       105.934305373
       165          330.000000         0.374398505      1231.516210875     -4142.279765035     -4141.905366530        53.443669768
       166          332.000000         0.321379589      1057.120069323     -4142.296959122     -4141.975579532        41.896736457
       167          334.000000         0.367797987      1209.804996895     -4142.301586979     -4141.933788993        48.851220299
       168          336.000000         0.433777730      1426.833438571     -4142.309385247     -4141.875607516        43.652358633
       169          338.000000         0.363503285      1195.678353127     -4142.321241838     -4141.957738553        50.757605582
       170          340.000000         0.321654078      1058.022949947     -4142.336005570     -4142.014351492        59.685781191
       171          342.000000         0.364531523      1199.060556284     -4142.349132750     -4141.984601227        55.443227153
       172          344.000000         0.315453809      1037.628286259     -4142.354499685     -4142.039045876        52.468031835
       173          346.000000         0.344819660      1134.221945799     -4142.358884623     -4142.014064962        49.594200086
       174          348.000000         0.341228507      1122.409496784     -4142.362610964     -4142.021382457        50.292896884
       175          350.000000         0.414641376      1363.887858416     -4142.367231740     -4141.952590364        56.047153760
       176          352.000000         0.392372202      1290.637437337     -4142.374445779     -4141.982073577        50.127656437
       177          354.000000         0.354446547      1165.887850215     -4142.386402490     -4142.031955943        51.176893449
       178          356.000000         0.343098341      1128.559978611     -4142.393175629     -4142.050077287        51.606650244
       179          358.000000         0.326471265      1073.868215363     -4142.398282708     -4142.071811444        44.923332539
       180          360.000000         0.372040564      1223.760189729     -4142.403137116     -4142.031096552        53.301662908
       181          362.000000         0.310517396      1021.390848779     -4142.400493277     -4142.089975880        51.428893741
       182          364.000000         0.378464882      1244.891820808     -4142.395517420     -4142.017052538        55.334659617
       183          366.000000         0.354407034      1165.757880216     -4142.394325666     -4142.039918632        53.666455214
       184          368.000000         0.348490068      1146.295088039     -4142.407326824     -4142.058836757        47.954098252
       185          370.000000         0.406507578      1337.133201200     -4142.413550600     -4142.007043022        54.726441559
       186          372.000000         0.393764386      1295.216774090     -4142.411740017     -4142.017975631        52.589988836
       187          374.000000         0.356721436      1173.370685902     -4142.404721446     -4142.048000010        49.220762159
       188          376.000000         0.361217351      1188.159186964     -4142.406290373     -4142.045073021        47.104671371
       189          378.000000         0.352344759      1158.974398835     -4142.408933905     -4142.056589146        47.148126431
       190          380.000000         0.355774449      1170.255743417     -4142.415242471     -4142.059468022        47.879705069
       191          382.000000         0.405035336      1332.290526580     -4142.416173781     -4142.011138446        46.845234056
       192          384.000000         0.397164821      1306.401889521     -4142.420739775     -4142.023574954        45.549357423
       193          386.000000         0.370279643      1217.967955819     -4142.434737025     -4142.064457382        40.201840356
       194          388.000000         0.406741091      1337.901301352     -4142.432949115     -4142.026208024        43.917768858
       195          390.000000         0.303646666       998.790824220     -4142.428816622     -4142.125169956        36.084217300
       196          392.000000         0.354141941      1164.885901923     -4142.429565365     -4142.075423425        37.110731485
       197          394.000000         0.355821119      1170.409255978     -4142.427009715     -4142.071188596        41.113575997
       198          396.000000         0.302561293       995.220685328     -4142.422591155     -4142.120029862        40.744775109
       199          398.000000         0.364520000      1199.022653213     -4142.420242244     -4142.055722244        37.118843702
       200          400.000000         0.381654271      1255.382740137     -4142.417014417     -4142.035360146        40.212727483
       201          402.000000         0.344618108      1133.558976843     -4142.415427101     -4142.070808993        40.860003742
       202          404.000000         0.353367006      1162.336894340     -4142.409623652     -4142.056256646        38.791380187
       203          406.000000         0.449462741      1478.426446788     -4142.407055049     -4141.957592307        39.497515390
       204          408.000000         0.383838487      1262.567323258     -4142.405162949     -4142.021324462        40.538451543
       205          410.000000         0.379763737      1249.164169752     -4142.411389314     -4142.031625577        38.105858488
       206          412.000000         0.421435933      1386.237325223     -4142.410580559     -4141.989144627        40.066384725
       207          414.000000         0.382728982      1258.917807901     -4142.405587741     -4142.022858759        38.794331354
       208          416.000000         0.400925847      1318.773105276     -4142.400716720     -4141.999790873        37.149721260
       209          418.000000         0.408563308      1343.895152699     -4142.403225129     -4141.994661821        37.620662987
       210          420.000000         0.374876975      1233.090050227     -4142.400641786     -4142.025764811        41.642687393
       211          422.000000         0.355910129      1170.702038736     -4142.395186033     -4142.039275904        48.493777269
       212          424.000000         0.347162524      1141.928372362     -4142.390356196     -4142.043193672        47.892591248
       213          426.000000         0.389008668      1279.573699580     -4142.386014469     -4141.997005801        41.048557105
       214          428.000000         0.370475570      1218.612422310     -4142.373581713     -4142.003106143        46.781902311
       215          430.000000         0.330776589      1088.029802478     -4142.366057876     -4142.035281287        47.754186784
       216          432.000000         0.324068637      1065.965207195     -4142.362960398     -4142.038891760        50.052102865
       217          434.000000         0.400813396      1318.403219984     -4142.361683367     -4141.960869970        46.953205684
       218          436.000000         0.345302320      1135.809566338     -4142.370342839     -4142.025040520        46.334390882
       219          438.000000         0.396004101      1302.583911313     -4142.376728620     -4141.980724520        46.393996895
       220          440.000000         0.450166871      1480.742554761     -4142.375576431     -4141.925409560        48.665567820
       221          442.000000         0.435579697      1432.760681792     -4142.394649616     -4141.959069919        47.650855124
       222          444.000000         0.349840566      1150.737307367     -4142.402629821     -4142.052789255        48.437714384
       223          446.000000         0.364013368      1197.356176872     -4142.414741708     -4142.050728340        54.329738312
       224          448.000000         0.409100324      1345.661570314     -4142.425267920     -4142.016167596        52.423298686
       225          450.000000         0.400778731      1318.289194103     -4142.418235016     -4142.017456285        51.297887563
       226          452.000000         0.401890489      1321.946120653     -4142.417443072     -4142.015552583        53.135324704
       227          454.000000         0.332473454      1093.611331560     -4142.416383816     -4142.083910362        53.114353552